You are running Q-Chem version: 5.2.0

#
# job setting
#
local host:  nid00015
current dir: /global/homes/m/mzhou035/inverse_H2CO
input file:  run.input
output file: 
nprocs     : 0
nthreads   : 32
#
# qchem installation setting
#
QC:          /global/common/cori/software/qchem/5.2
QCAUX:       /global/common/cori/software/qchem/5.2/qcaux
QCPROG:      /global/common/cori/software/qchem/5.2/exe/qcprog.exe_s
QCPROG_S:    /global/common/cori/software/qchem/5.2/exe/qcprog.exe_s
PARALLEL:    -DSERIAL
QCMPI:       slurm
#
# qchem directory setting
#
qcrun:       qchem65029
QCSCRATCH:   /global/cscratch1/sd/mzhou035
QCLOCALSCR:  /tmp
QCTMPDIR:    /tmp
QCFILEPREF:  /tmp/qchem65029
QCSAVEDIR:   
workdirs:    /tmp/qchem65029
workdir0:    /tmp/qchem65029
partmpdirs =  
#
# parallel setting
#
QCRSH:           ssh
QCMPI:           slurm
QCMPIRUN:        srun
QCMACHINEFILE:   /tmp/qchem65029/hostfile

#
# env setting
#
exported envs:   QC QCAUX QCSCRATCH QCRUNNAME QCFILEPREF QCPROG QCPROG_S GUIFILE

Running Job 1 of 1 run.input
qchem run.input_65029.0 /tmp/qchem65029/ 0
/global/common/cori/software/qchem/5.2/exe/qcprog.exe_s run.input_65029.0 /tmp/qchem65029/
                  Welcome to Q-Chem
     A Quantum Leap Into The Future Of Chemistry


 Q-Chem 5.2, Q-Chem, Inc., Pleasanton, CA (2019)

 License issued to: National Energy Research Scientific Computing Center

 Yihan Shao,  Zhengting Gan,  E. Epifanovsky,  A. T. B. Gilbert,  M. Wormit,  
 J. Kussmann,  A. W. Lange,  A. Behn,  Jia Deng,  Xintian Feng,  D. Ghosh,  
 M. Goldey,  P. R. Horn,  L. D. Jacobson,  I. Kaliman,  T. Kus,  A. Landau,  
 Jie Liu,  E. I. Proynov,  R. M. Richard,  R. P. Steele,  E. J. Sundstrom,  
 H. L. Woodcock III,  P. M. Zimmerman,  D. Zuev,  B. Albrecht,  E. Alguire,  
 S. A. Baeppler,  D. Barton,  Z. Benda,  Y. A. Bernard,  E. J. Berquist,  
 K. B. Bravaya,  H. Burton,  D. Casanova,  Chun-Min Chang,  Yunqing Chen,  
 A. Chien,  K. D. Closser,  M. P. Coons,  S. Coriani,  S. Dasgupta,  
 A. L. Dempwolff,  M. Diedenhofen,  Hainam Do,  R. G. Edgar,  Po-Tung Fang,  
 S. Faraji,  S. Fatehi,  Qingguo Feng,  K. D. Fenk,  J. Fosso-Tande,  
 J. Gayvert,  Qinghui Ge,  A. Ghysels,  G. Gidofalvi,  J. Gomes,  
 J. Gonthier,  A. Gunina,  D. Hait,  M. W. D. Hanson-Heine,  
 P. H. P. Harbach,  A. W. Hauser,  M. F. Herbst,  J. E. Herr,  
 E. G. Hohenstein,  Z. C. Holden,  Kerwin Hui,  B. C. Huynh,  T.-C. Jagau,  
 Hyunjun Ji,  B. Kaduk,  K. Khistyaev,  Jaehoon Kim,  P. Klunzinger,  K. Koh,  
 D. Kosenkov,  L. Koulias,  T. Kowalczyk,  C. M. Krauter,  A. Kunitsa,  
 Ka Un Lao,  A. Laurent,  K. V. Lawler,  Joonho Lee,  D. Lefrancois,  
 S. Lehtola,  D. S. Levine,  Yi-Pei Li,  You-Sheng Lin,  Fenglai Liu,  
 E. Livshits,  A. Luenser,  P. Manohar,  E. Mansoor,  S. F. Manzer,  
 Shan-Ping Mao,  Yuezhi Mao,  N. Mardirossian,  A. V. Marenich,  
 T. Markovich,  L. A. Martinez-Martinez,  S. A. Maurer,  N. J. Mayhall,  
 S. C. McKenzie,  J.-M. Mewes,  P. Morgante,  A. F. Morrison,  
 J. W. Mullinax,  K. Nanda,  T. S. Nguyen-Beck,  R. Olivares-Amaya,  
 J. A. Parkhill,  Zheng Pei,  T. M. Perrine,  F. Plasser,  P. Pokhilko,  
 S. Prager,  A. Prociuk,  E. Ramos,  D. R. Rehn,  F. Rob,  M. Scheurer,  
 M. Schneider,  N. Sergueev,  S. M. Sharada,  S. Sharma,  D. W. Small,  
 T. Stauch,  T. Stein,  Yu-Chuan Su,  A. J. W. Thom,  A. Tkatchenko,  
 T. Tsuchimochi,  N. M. Tubman,  L. Vogt,  M. L. Vidal,  O. Vydrov,  
 M. A. Watson,  J. Wenzel,  M. de Wergifosse,  T. A. Wesolowski,  A. White,  
 J. Witte,  A. Yamada,  Jun Yang,  K. Yao,  S. Yeganeh,  S. R. Yost,  
 Zhi-Qiang You,  A. Zech,  Igor Ying Zhang,  Xing Zhang,  Yan Zhao,  
 Ying Zhu,  B. R. Brooks,  G. K. L. Chan,  C. J. Cramer,  M. S. Gordon,  
 W. J. Hehre,  A. Klamt,  M. W. Schmidt,  C. D. Sherrill,  D. G. Truhlar,  
 A. Aspuru-Guzik,  R. Baer,  A. T. Bell,  N. A. Besley,  Jeng-Da Chai,  
 A. E. DePrince, III,  R. A. DiStasio Jr.,  A. Dreuw,  B. D. Dunietz,  
 T. R. Furlani,  Chao-Ping Hsu,  Yousung Jung,  Jing Kong,  D. S. Lambrecht,  
 WanZhen Liang,  C. Ochsenfeld,  V. A. Rassolov,  L. V. Slipchenko,  
 J. E. Subotnik,  T. Van Voorhis,  J. M. Herbert,  A. I. Krylov,  
 P. M. W. Gill,  M. Head-Gordon

 Contributors to earlier versions of Q-Chem not listed above: 
 R. D. Adamson,  B. Austin,  J. Baker,  G. J. O. Beran,  K. Brandhorst,  
 S. T. Brown,  E. F. C. Byrd,  A. K. Chakraborty,  C.-L. Cheng,  
 Siu Hung Chien,  D. M. Chipman,  D. L. Crittenden,  H. Dachsel,  
 R. J. Doerksen,  A. D. Dutoi,  L. Fusti-Molnar,  W. A. Goddard III,  
 A. Golubeva-Zadorozhnaya,  S. R. Gwaltney,  G. Hawkins,  A. Heyden,  
 S. Hirata,  G. Kedziora,  F. J. Keil,  C. Kelley,  Jihan Kim,  R. A. King,  
 R. Z. Khaliullin,  P. P. Korambath,  W. Kurlancheek,  A. M. Lee,  M. S. Lee,  
 S. V. Levchenko,  Ching Yeh Lin,  D. Liotard,  R. C. Lochan,  I. Lotan,  
 P. E. Maslen,  N. Nair,  D. P. O'Neill,  D. Neuhauser,  E. Neuscamman,  
 C. M. Oana,  R. Olson,  B. Peters,  R. Peverati,  P. A. Pieniazek,  
 Y. M. Rhee,  J. Ritchie,  M. A. Rohrdanz,  E. Rosta,  N. J. Russ,  
 H. F. Schaefer III,  N. E. Schultz,  N. Shenvi,  A. C. Simmonett,  A. Sodt,  
 D. Stuck,  K. S. Thanthiriwatte,  V. Vanovschi,  Tao Wang,  A. Warshel,  
 C. F. Williams,  Q. Wu,  X. Xu,  W. Zhang

 Please cite Q-Chem as follows:
 Y. Shao et al., Mol. Phys. 113, 184-215 (2015)
 DOI: 10.1080/00268976.2014.952696

 Q-Chem 5.2.0 for Intel X86 EM64T Linux

 Parts of Q-Chem use Armadillo 8.300.2 (Tropical Shenanigans).
 http://arma.sourceforge.net/

 Q-Chem begins on Sat Oct 16 18:54:26 2021  

Host: cori08
0

     Scratch files written to /tmp/qchem65029//
 May1019 |scratch|qcdevops|jenkins|workspace|build_RNUM -1
Processing $rem in /global/common/cori/software/qchem/5.2/config/preferences:
	 MEM_TOTAL  96000 
NAlpha2: 16
NElect   16
Mult     1
Core orbitals will be frozen

Checking the input file for inconsistencies... 	...done.

--------------------------------------------------------------
User input:
--------------------------------------------------------------
$molecule
0 1
C -0.087515 0.668873 0.067435
O 0.002857 -0.540236 0.036406
H -0.615725 1.188770 0.880649
H 0.354668 1.301644 -0.716392
$end

$rem
jobtype                force
exchange               HF
correlation            mp2
basis                  aug-cc-pVTZ
SCF_CONVERGENCE 11
symmetry false
sym_ignore true
$end
--------------------------------------------------------------
 ----------------------------------------------------------------
             Standard Nuclear Orientation (Angstroms)
    I     Atom           X                Y                Z
 ----------------------------------------------------------------
    1      C      -0.0875150000     0.6688730000     0.0674350000
    2      O       0.0028570000    -0.5402360000     0.0364060000
    3      H      -0.6157250000     1.1887700000     0.8806490000
    4      H       0.3546680000     1.3016440000    -0.7163920000
 ----------------------------------------------------------------
 Nuclear Repulsion Energy =          31.18642206 hartrees
 There are        8 alpha and        8 beta electrons
 Requested basis set is aug-cc-pVTZ
 There are 46 shells and 138 basis functions

 Total QAlloc Memory Limit  96000 MB
 Mega-Array Size       188 MB
 MEM_STATIC part       192 MB

                       Distance Matrix (Angstroms)
             C (  1)   O (  2)   H (  3)
   O (  2)  1.212879
   H (  3)  1.100280  2.021102
   H (  4)  1.100141  2.020643  1.872149
 
 A cutoff of  1.0D-14 yielded   1081 shell pairs
 There are      9817 function pairs (     13252 Cartesian)
 Smallest overlap matrix eigenvalue = 8.45E-05

 Scale SEOQF with 1.000000e-01/1.000000e-01/1.000000e-01

 Standard Electronic Orientation quadrupole field applied
 Nucleus-field energy     =     0.0000000005 hartrees
 Guess from superposition of atomic densities
 Warning:  Energy on first SCF cycle will be non-variational
 SAD guess density has 16.000000 electrons

 -----------------------------------------------------------------------
  General SCF calculation program by
  Eric Jon Sundstrom, Paul Horn, Yuezhi Mao, Dmitri Zuev, Alec White,
  David Stuck, Shaama M.S., Shane Yost, Joonho Lee, David Small,
  Daniel Levine, Susi Lehtola, Hugh Burton, Evgeny Epifanovsky
 -----------------------------------------------------------------------
 Hartree-Fock
 using 32 threads for integral computing
 -------------------------------------------------------
 OpenMP Integral computing Module                
 Release: version 1.0, May 2013, Q-Chem Inc. Pittsburgh 
 -------------------------------------------------------
 A restricted SCF calculation will be
 performed using DIIS
 SCF converges when DIIS error is below 1.0e-11
 ---------------------------------------
  Cycle       Energy         DIIS error
 ---------------------------------------
    1    -114.0806789021      3.40e-02  
    2    -113.8397088811      5.71e-03  
    3    -113.8732375198      4.92e-03  
    4    -113.9121916400      4.25e-04  
    5    -113.9129611646      1.62e-04  
    6    -113.9131006489      6.98e-05  
    7    -113.9131417575      2.77e-05  
    8    -113.9131458187      4.03e-06  
    9    -113.9131459039      5.53e-07  
   10    -113.9131459060      1.03e-07  
   11    -113.9131459060      1.81e-08  
   12    -113.9131459060      2.81e-09  
   13    -113.9131459060      5.69e-10  
   14    -113.9131459060      5.17e-11  
   15    -113.9131459060      6.46e-12  Convergence criterion met
 ---------------------------------------
 SCF time:   CPU 130.17s  wall 4.00s 
 SCF   energy in the final basis set =     -113.9131459060
 Total energy in the final basis set =     -113.9131459060
 
 Components of the MP2 correlation energy:
        aaaa  correlation energy =        -0.0481389791 au
        abab  correlation energy =        -0.3069863154 au
        bbbb  correlation energy =        -0.0481389791 au
        non-Brillouin singles    =        -0.0000000000 au

 Total  MP2   correlation energy =                    -0.40326427 au
        MP2         total energy =                  -114.31641018 au
  Entering Z-vector solver.
   1         0           1      0.000410    0.000410
   2         0           1      0.000129    0.000129
   3         0           1      0.000041    0.000041
   4         0           1      0.000010    0.000010
   5         0           1      0.000003    0.000003
   6         1           0      0.000000    0.000000    Roots Converged
 
 --------------------------------------------------------------
 
                    Orbital Energies (a.u.)
 --------------------------------------------------------------
 
 Alpha MOs
 -- Occupied --
-20.5793 -11.3435  -1.4023  -0.8729  -0.6945  -0.6506  -0.5343  -0.4449
 -- Virtual --
  0.0261   0.0416   0.0620   0.0765   0.1280   0.1328   0.1336   0.1744
  0.1979   0.2119   0.2170   0.2539   0.2559   0.2811   0.3201   0.3380
  0.3393   0.3590   0.3877   0.3900   0.3959   0.4184   0.4819   0.4981
  0.5623   0.5666   0.6694   0.6769   0.7201   0.7640   0.8191   0.8345
  0.8422   0.8568   0.8756   0.8815   0.9278   0.9339   0.9397   0.9786
  1.0006   1.0207   1.0235   1.0359   1.0683   1.0822   1.0982   1.1013
  1.2590   1.2631   1.3051   1.3689   1.3895   1.4570   1.4767   1.5125
  1.5717   1.5968   1.6265   1.7071   1.7285   1.8323   1.9623   2.0060
  2.0319   2.0980   2.1788   2.2853   2.3203   2.3390   2.3437   2.4884
  2.4968   2.5599   2.6012   2.7145   2.7801   2.8082   2.9180   2.9263
  3.0667   3.0794   3.1437   3.1865   3.4106   3.4399   3.5286   3.5633
  3.6254   3.6593   3.7012   3.8958   3.9546   4.0507   4.1157   4.1538
  4.1628   4.2173   4.2421   4.3623   4.5767   4.6480   4.6879   4.7649
  5.0294   5.0428   5.1042   5.1488   5.2484   5.2844   5.3296   5.3870
  5.8953   6.1332   6.2337   6.4994   6.5980   6.6171   6.9125   6.9432
  7.0820   7.1889   7.2039   7.4065   7.5247   7.6788   7.7200   7.7653
 14.8219  16.3948
 --------------------------------------------------------------
 
          Ground-State Mulliken Net Atomic Charges

     Atom                 Charge (a.u.)
  ----------------------------------------
      1 C                    -0.509640
      2 O                    -0.397249
      3 H                     0.453415
      4 H                     0.453474
  ----------------------------------------
  Sum of atomic charges =     0.000000

 -----------------------------------------------------------------
                    Cartesian Multipole Moments
 -----------------------------------------------------------------
    Charge (ESU x 10^10)
                -0.0000
    Dipole Moment (Debye)
         X      -0.1787      Y       2.3910      Z       0.0613
       Tot       2.3984
    Quadrupole Moments (Debye-Ang)
        XX     -11.7832     XY      -0.0985     YY     -11.6723
        XZ      -0.0465     YZ       0.1204     ZZ     -11.7550
    Octopole Moments (Debye-Ang^2)
       XXX       1.7557    XXY      -1.9082    XYY       0.5870
       YYY      -5.4171    XXZ      -0.5509    XYZ      -0.5882
       YYZ      -0.7457    XZZ       0.5046    YZZ      -1.3011
       ZZZ      -1.8739
    Hexadecapole Moments (Debye-Ang^3)
      XXXX     -13.6847   XXXY       1.4469   XXYY     -10.2283
      XYYY       1.5259   YYYY     -48.5456   XXXZ       2.0861
      XXYZ      -0.0921   XYYZ       0.3895   YYYZ      -0.6318
      XXZZ      -4.9157   XYZZ       0.3923   YYZZ     -10.5602
      XZZZ       1.6409   YZZZ      -0.4570   ZZZZ     -17.1733
 -----------------------------------------------------------------
 DrvMan is completing analytic gradient of the MP2 energy
 MP2 relaxed dipole moment
            1
    1  -0.0702927
    2   0.9406853
    3   0.0241157
	Magnitude:	 0.944 au	 2.398 Debye
 MP2 energy read as -114.316410
 Full Analytical Gradient of MP2 Energy (in au.)
             1             2             3             4
    1   -0.00000155    0.00002542   -0.00002995    0.00000607
    2   -0.00001153    0.00001784    0.00004254   -0.00004884
    3    0.00000221   -0.00004281    0.00004533   -0.00000473
 Gradient time:  CPU 0.94 s  wall 0.21 s
Archival summary:
1\1\nid00015\JobtypUnspecified\MP2\BasisUnspecified\112\mzhou035\SatOct1618:54:472021SatOct1618:54:472021\0\\#,JobtypUnspecified,MP2,BasisUnspecified,\\0,1\C\H,1,1.10014\H,1,1.10028,2,116.601\O,1,1.21288,2,121.682,3,-180,0\\HF=-113.913146\MP2=-114.31641\\@

 Total job time:  20.53s(wall), 365.13s(cpu) 
 Sat Oct 16 18:54:47 2021

        *************************************************************
        *                                                           *
        *  Thank you very much for using Q-Chem.  Have a nice day.  *
        *                                                           *
        *************************************************************


remove work dirs /tmp/qchem65029.0 -- /tmp/qchem65029.-1
rm -rf /tmp/qchem65029