You are running Q-Chem version: 5.2.0

#
# job setting
#
local host:  nid00139
current dir: /global/homes/m/mzhou035/Force_design
input file:  simulator_input.dat
output file: 
nprocs     : 0
nthreads   : 32
#
# qchem installation setting
#
QC:          /global/common/cori/software/qchem/5.2
QCAUX:       /global/common/cori/software/qchem/5.2/qcaux
QCPROG:      /global/common/cori/software/qchem/5.2/exe/qcprog.exe_s
QCPROG_S:    /global/common/cori/software/qchem/5.2/exe/qcprog.exe_s
PARALLEL:    -DSERIAL
QCMPI:       slurm
#
# qchem directory setting
#
qcrun:       qchem27349
QCSCRATCH:   /global/cscratch1/sd/mzhou035
QCLOCALSCR:  /tmp
QCTMPDIR:    /tmp
QCFILEPREF:  /tmp/qchem27349
QCSAVEDIR:   
workdirs:    /tmp/qchem27349
workdir0:    /tmp/qchem27349
partmpdirs =  
#
# parallel setting
#
QCRSH:           ssh
QCMPI:           slurm
QCMPIRUN:        srun
QCMACHINEFILE:   /tmp/qchem27349/hostfile

#
# env setting
#
exported envs:   QC QCAUX QCSCRATCH QCRUNNAME QCFILEPREF QCPROG QCPROG_S GUIFILE

Running Job 1 of 1 simulator_input.dat
qchem simulator_input.dat_27349.0 /tmp/qchem27349/ 0
/global/common/cori/software/qchem/5.2/exe/qcprog.exe_s simulator_input.dat_27349.0 /tmp/qchem27349/
                  Welcome to Q-Chem
     A Quantum Leap Into The Future Of Chemistry


 Q-Chem 5.2, Q-Chem, Inc., Pleasanton, CA (2019)

 License issued to: National Energy Research Scientific Computing Center

 Yihan Shao,  Zhengting Gan,  E. Epifanovsky,  A. T. B. Gilbert,  M. Wormit,  
 J. Kussmann,  A. W. Lange,  A. Behn,  Jia Deng,  Xintian Feng,  D. Ghosh,  
 M. Goldey,  P. R. Horn,  L. D. Jacobson,  I. Kaliman,  T. Kus,  A. Landau,  
 Jie Liu,  E. I. Proynov,  R. M. Richard,  R. P. Steele,  E. J. Sundstrom,  
 H. L. Woodcock III,  P. M. Zimmerman,  D. Zuev,  B. Albrecht,  E. Alguire,  
 S. A. Baeppler,  D. Barton,  Z. Benda,  Y. A. Bernard,  E. J. Berquist,  
 K. B. Bravaya,  H. Burton,  D. Casanova,  Chun-Min Chang,  Yunqing Chen,  
 A. Chien,  K. D. Closser,  M. P. Coons,  S. Coriani,  S. Dasgupta,  
 A. L. Dempwolff,  M. Diedenhofen,  Hainam Do,  R. G. Edgar,  Po-Tung Fang,  
 S. Faraji,  S. Fatehi,  Qingguo Feng,  K. D. Fenk,  J. Fosso-Tande,  
 J. Gayvert,  Qinghui Ge,  A. Ghysels,  G. Gidofalvi,  J. Gomes,  
 J. Gonthier,  A. Gunina,  D. Hait,  M. W. D. Hanson-Heine,  
 P. H. P. Harbach,  A. W. Hauser,  M. F. Herbst,  J. E. Herr,  
 E. G. Hohenstein,  Z. C. Holden,  Kerwin Hui,  B. C. Huynh,  T.-C. Jagau,  
 Hyunjun Ji,  B. Kaduk,  K. Khistyaev,  Jaehoon Kim,  P. Klunzinger,  K. Koh,  
 D. Kosenkov,  L. Koulias,  T. Kowalczyk,  C. M. Krauter,  A. Kunitsa,  
 Ka Un Lao,  A. Laurent,  K. V. Lawler,  Joonho Lee,  D. Lefrancois,  
 S. Lehtola,  D. S. Levine,  Yi-Pei Li,  You-Sheng Lin,  Fenglai Liu,  
 E. Livshits,  A. Luenser,  P. Manohar,  E. Mansoor,  S. F. Manzer,  
 Shan-Ping Mao,  Yuezhi Mao,  N. Mardirossian,  A. V. Marenich,  
 T. Markovich,  L. A. Martinez-Martinez,  S. A. Maurer,  N. J. Mayhall,  
 S. C. McKenzie,  J.-M. Mewes,  P. Morgante,  A. F. Morrison,  
 J. W. Mullinax,  K. Nanda,  T. S. Nguyen-Beck,  R. Olivares-Amaya,  
 J. A. Parkhill,  Zheng Pei,  T. M. Perrine,  F. Plasser,  P. Pokhilko,  
 S. Prager,  A. Prociuk,  E. Ramos,  D. R. Rehn,  F. Rob,  M. Scheurer,  
 M. Schneider,  N. Sergueev,  S. M. Sharada,  S. Sharma,  D. W. Small,  
 T. Stauch,  T. Stein,  Yu-Chuan Su,  A. J. W. Thom,  A. Tkatchenko,  
 T. Tsuchimochi,  N. M. Tubman,  L. Vogt,  M. L. Vidal,  O. Vydrov,  
 M. A. Watson,  J. Wenzel,  M. de Wergifosse,  T. A. Wesolowski,  A. White,  
 J. Witte,  A. Yamada,  Jun Yang,  K. Yao,  S. Yeganeh,  S. R. Yost,  
 Zhi-Qiang You,  A. Zech,  Igor Ying Zhang,  Xing Zhang,  Yan Zhao,  
 Ying Zhu,  B. R. Brooks,  G. K. L. Chan,  C. J. Cramer,  M. S. Gordon,  
 W. J. Hehre,  A. Klamt,  M. W. Schmidt,  C. D. Sherrill,  D. G. Truhlar,  
 A. Aspuru-Guzik,  R. Baer,  A. T. Bell,  N. A. Besley,  Jeng-Da Chai,  
 A. E. DePrince, III,  R. A. DiStasio Jr.,  A. Dreuw,  B. D. Dunietz,  
 T. R. Furlani,  Chao-Ping Hsu,  Yousung Jung,  Jing Kong,  D. S. Lambrecht,  
 WanZhen Liang,  C. Ochsenfeld,  V. A. Rassolov,  L. V. Slipchenko,  
 J. E. Subotnik,  T. Van Voorhis,  J. M. Herbert,  A. I. Krylov,  
 P. M. W. Gill,  M. Head-Gordon

 Contributors to earlier versions of Q-Chem not listed above: 
 R. D. Adamson,  B. Austin,  J. Baker,  G. J. O. Beran,  K. Brandhorst,  
 S. T. Brown,  E. F. C. Byrd,  A. K. Chakraborty,  C.-L. Cheng,  
 Siu Hung Chien,  D. M. Chipman,  D. L. Crittenden,  H. Dachsel,  
 R. J. Doerksen,  A. D. Dutoi,  L. Fusti-Molnar,  W. A. Goddard III,  
 A. Golubeva-Zadorozhnaya,  S. R. Gwaltney,  G. Hawkins,  A. Heyden,  
 S. Hirata,  G. Kedziora,  F. J. Keil,  C. Kelley,  Jihan Kim,  R. A. King,  
 R. Z. Khaliullin,  P. P. Korambath,  W. Kurlancheek,  A. M. Lee,  M. S. Lee,  
 S. V. Levchenko,  Ching Yeh Lin,  D. Liotard,  R. C. Lochan,  I. Lotan,  
 P. E. Maslen,  N. Nair,  D. P. O'Neill,  D. Neuhauser,  E. Neuscamman,  
 C. M. Oana,  R. Olson,  B. Peters,  R. Peverati,  P. A. Pieniazek,  
 Y. M. Rhee,  J. Ritchie,  M. A. Rohrdanz,  E. Rosta,  N. J. Russ,  
 H. F. Schaefer III,  N. E. Schultz,  N. Shenvi,  A. C. Simmonett,  A. Sodt,  
 D. Stuck,  K. S. Thanthiriwatte,  V. Vanovschi,  Tao Wang,  A. Warshel,  
 C. F. Williams,  Q. Wu,  X. Xu,  W. Zhang

 Please cite Q-Chem as follows:
 Y. Shao et al., Mol. Phys. 113, 184-215 (2015)
 DOI: 10.1080/00268976.2014.952696

 Q-Chem 5.2.0 for Intel X86 EM64T Linux

 Parts of Q-Chem use Armadillo 8.300.2 (Tropical Shenanigans).
 http://arma.sourceforge.net/

 Q-Chem begins on Tue Feb 15 16:27:54 2022  

Host: cori08
0

     Scratch files written to /tmp/qchem27349//
 May1019 |scratch|qcdevops|jenkins|workspace|build_RNUM -1
Processing $rem in /global/common/cori/software/qchem/5.2/config/preferences:
	 MEM_TOTAL  96000 
NAlpha2: 16
NElect   16
Mult     1
Core orbitals will be frozen

Checking the input file for inconsistencies... 	...done.

--------------------------------------------------------------
User input:
--------------------------------------------------------------
$molecule
0 1
C	51523.29806576	-0.43634391	0.32120574
O	-0.12647105	0.59626297	-0.25816759
H	-0.26271385	-1.77846065	0.05462642
H	0.71605369	-0.53388479	1.38725590
$end

$rem
jobtype                force
exchange               HF
correlation            mp2
basis                  aug-cc-pVTZ
SCF_CONVERGENCE 11
symmetry false
sym_ignore true
$end
--------------------------------------------------------------
 ----------------------------------------------------------------
             Standard Nuclear Orientation (Angstroms)
    I     Atom           X                Y                Z
 ----------------------------------------------------------------
    1      C   51523.2980657600    -0.4363439100     0.3212057400
    2      O      -0.1264710500     0.5962629700    -0.2581675900
    3      H      -0.2627138500    -1.7784606500     0.0546264200
    4      H       0.7160536900    -0.5338847900     1.3872559000
 ----------------------------------------------------------------
 Nuclear Repulsion Energy =           3.97477244 hartrees
 There are        8 alpha and        8 beta electrons
 Requested basis set is aug-cc-pVTZ
 There are 46 shells and 138 basis functions

 Total QAlloc Memory Limit  96000 MB
 Mega-Array Size       188 MB
 MEM_STATIC part       192 MB

                       Distance Matrix (Angstroms)
             C (  1)   O (  2)   H (  3)
   O (  2) *********
   H (  3) *********  2.399107
   H (  4) *********  2.166680  2.069506
 
 A cutoff of  1.0D-14 yielded    633 shell pairs
 There are      5585 function pairs (      7477 Cartesian)
 Smallest overlap matrix eigenvalue = 4.39E-03

 Scale SEOQF with 1.000000e-09/1.000000e-01/1.000000e-01

 Standard Electronic Orientation quadrupole field applied
 Nucleus-field energy     =     0.0000000059 hartrees
 Guess from superposition of atomic densities
 Warning:  Energy on first SCF cycle will be non-variational
 SAD guess density has 16.000000 electrons

 -----------------------------------------------------------------------
  General SCF calculation program by
  Eric Jon Sundstrom, Paul Horn, Yuezhi Mao, Dmitri Zuev, Alec White,
  David Stuck, Shaama M.S., Shane Yost, Joonho Lee, David Small,
  Daniel Levine, Susi Lehtola, Hugh Burton, Evgeny Epifanovsky
 -----------------------------------------------------------------------
 Hartree-Fock
 using 32 threads for integral computing
 -------------------------------------------------------
 OpenMP Integral computing Module                
 Release: version 1.0, May 2013, Q-Chem Inc. Pittsburgh 
 -------------------------------------------------------
 A restricted SCF calculation will be
 performed using DIIS
 SCF converges when DIIS error is below 1.0e-11
 ---------------------------------------
  Cycle       Energy         DIIS error
 ---------------------------------------
    1    -112.2892389792      3.35e-03  
    2    -111.3369665586      1.27e-02  
    3    -111.2608829050      1.38e-02  
    4    -112.8103007692      8.73e-03  
    5    -112.9003332103      7.46e-03  
    6    -113.0866350195      4.67e-03  
    7    -113.2106633587      1.23e-03  
    8    -113.2172952805      1.17e-03  
    9    -113.2190630833      1.07e-03  
   10    -113.2228299007      5.28e-04  
   11    -113.2239446951      5.58e-05  
   12    -113.2239643108      2.10e-05  
   13    -113.2239714903      1.90e-05  
   14    -113.2239828713      1.79e-05  
   15    -113.2240261844      1.05e-05  
   16    -113.2240470683      2.98e-06  
   17    -113.2240471718      2.49e-06  
   18    -113.2240472199      3.09e-07  
   19    -113.2240472206      4.63e-08  
   20    -113.2240472206      1.22e-08  
   21    -113.2240472206      1.84e-09  
   22    -113.2240472206      3.47e-10  
   23    -113.2240472206      7.91e-11  
   24    -113.2240472206      1.45e-11  
   25    -113.2240472206      1.52e-12  Convergence criterion met
 ---------------------------------------
 SCF time:   CPU 158.68s  wall 5.00s 
 SCF   energy in the final basis set =     -113.2240472206
 Total energy in the final basis set =     -113.2240472206
 
 Components of the MP2 correlation energy:
        aaaa  correlation energy =        -0.0247333635 au
        abab  correlation energy =        -0.2777842942 au
        bbbb  correlation energy =        -0.0247333635 au
        non-Brillouin singles    =        -0.0000000000 au

 Total  MP2   correlation energy =                    -0.32725102 au
        MP2         total energy =                  -113.55129824 au
  Entering Z-vector solver.
   1         0           1      0.000615    0.000615
   2         0           1      0.000297    0.000297
   3         0           1      0.000062    0.000062
   4         0           1      0.000016    0.000016
   5         0           1      0.000012    0.000012
   6         0           1      0.000018    0.000018
   7         0           1      0.000010    0.000010
   8         0           1      0.000003    0.000003
   9         1           0      0.000000    0.000000    Roots Converged
 
 --------------------------------------------------------------
 
                    Orbital Energies (a.u.)
 --------------------------------------------------------------
 
 Alpha MOs
 -- Occupied --
-20.6726 -11.3659  -1.2308  -0.7260  -0.5479  -0.5458  -0.4091  -0.3582
 -- Virtual --
 -0.0611   0.0039   0.0194   0.0194   0.0660   0.0719   0.0972   0.1044
  0.1251   0.1251   0.1519   0.1573   0.1994   0.2237   0.2295   0.2735
  0.2780   0.3013   0.3013   0.3125   0.3125   0.3171   0.3199   0.3243
  0.3335   0.5636   0.5813   0.5817   0.5817   0.5965   0.6572   0.6603
  0.6873   0.7366   0.7406   0.7709   0.7799   0.8276   0.8662   0.8778
  0.8976   0.9203   0.9391   0.9609   0.9990   1.0078   1.0173   1.0414
  1.0414   1.0606   1.0606   1.0657   1.0657   1.0694   1.0704   1.0907
  1.0907   1.0988   1.1061   1.1061   1.1114   1.1312   1.1457   1.1962
  1.3027   1.4076   1.5407   1.7824   2.0883   2.1045   2.1062   2.1200
  2.1351   2.1414   2.1697   2.2373   2.2590   2.3025   2.3379   2.3602
  2.3602   2.3794   2.4007   2.7142   2.8543   3.3754   3.3754   3.4045
  3.4045   3.4174   3.4174   3.4322   3.4510   3.4510   3.4793   3.4793
  3.4889   3.8327   3.8378   3.8593   3.8661   3.8884   3.8955   3.9278
  3.9319   3.9691   4.0037   4.0212   4.0684   4.0685   4.1651   4.2083
  4.2145   4.3955   4.5600   4.6071   4.6286   6.4607   6.4981   6.4990
  6.5147   6.5191   6.5225   6.6605   7.0034   7.0167   7.0234   7.0562
  7.0723   9.0145
 --------------------------------------------------------------
 
          Ground-State Mulliken Net Atomic Charges

     Atom                 Charge (a.u.)
  ----------------------------------------
      1 C                    -0.000000
      2 O                    -0.267459
      3 H                     0.134951
      4 H                     0.132509
  ----------------------------------------
  Sum of atomic charges =     0.000000

 -----------------------------------------------------------------
                    Cartesian Multipole Moments
 -----------------------------------------------------------------
    Charge (ESU x 10^10)
                 0.0000
    Dipole Moment (Debye)
         X       0.3974      Y      -2.0153      Z       1.1117
       Tot       2.3356
    Quadrupole Moments (Debye-Ang)
        XX     -13.5151     XY       0.2440     YY     -14.3889
        XZ       1.4217     YZ      -0.7716     ZZ     -11.7757
    Octopole Moments (Debye-Ang^2)
       XXX -794196.9581    XXY       4.5734    XYY -492735.6446
       YYY       5.6565    XXZ       1.9248    XYZ      -0.1024
       YYZ      -5.1257    XZZ -264732.1204    YZZ       1.3571
       ZZZ      -2.2722
    Hexadecapole Moments (Debye-Ang^3)
      XXXX ************   XXXY  531859.6639   XXYY ************
      XYYY  645008.0023   YYYY     -57.1084   XXXZ -112592.6879
      XXYZ    8425.1823   XYYZ -158269.8346   YYYZ       9.7476
      XXZZ ************   XYZZ  115514.6109   YYZZ     -16.8517
      XZZZ -255102.7355   YZZZ       6.3559   ZZZZ     -27.2396
 -----------------------------------------------------------------
 DrvMan is completing analytic gradient of the MP2 energy
 MP2 relaxed dipole moment
            1
    1   0.1563654
    2  -0.7928668
    3   0.4373629
	Magnitude:	 0.919 au	 2.336 Debye
 MP2 energy read as -113.551298
 Full Analytical Gradient of MP2 Energy (in au.)
             1             2             3             4
    1   -0.00000000   -0.01095433   -0.01844220    0.02939653
    2    0.00000000    0.04176112   -0.04675112    0.00499000
    3   -0.00000000   -0.02751997   -0.01983581    0.04735578
 Gradient time:  CPU 0.87 s  wall 0.22 s
Archival summary:
1\1\nid00139\JobtypUnspecified\MP2\BasisUnspecified\112\mzhou035\TueFeb1516:28:072022TueFeb1516:28:072022\0\\#,JobtypUnspecified,MP2,BasisUnspecified,\\0,1\O\H,1,2.16668\H,2,2.06951,1,68.9464\C,2,51522.6,1,112.882,3,112.804,0\\HF=-113.224047\MP2=-113.551298\\@

 Total job time:  12.63s(wall), 302.69s(cpu) 
 Tue Feb 15 16:28:07 2022

        *************************************************************
        *                                                           *
        *  Thank you very much for using Q-Chem.  Have a nice day.  *
        *                                                           *
        *************************************************************


remove work dirs /tmp/qchem27349.0 -- /tmp/qchem27349.-1
rm -rf /tmp/qchem27349
