You are running Q-Chem version: 5.4.2

#
# job setting
#
local host:  nid00009
current dir: /global/homes/m/mzhou035/test_Force_design/Force_design
input file:  simulator_input.dat
output file: 
nprocs     : 0
nthreads   : 32
#
# qchem installation setting
#
QC:          /global/common/cori_cle7/software/qchem/5.4.2
QCAUX:       /global/common/cori_cle7/software/qchem/5.4.2/qcaux
QCPROG:      /global/common/cori_cle7/software/qchem/5.4.2/exe/qcprog.exe_s
QCPROG_S:    /global/common/cori_cle7/software/qchem/5.4.2/exe/qcprog.exe_s
PARALLEL:    -DSERIAL
QCMPI:       slurm
#
# qchem directory setting
#
qcrun:       qchem41395
QCSCRATCH:   /global/cscratch1/sd/mzhou035
QCLOCALSCR:  /tmp
QCTMPDIR:    /tmp
QCFILEPREF:  /tmp/qchem41395
QCSAVEDIR:   
workdirs:    /tmp/qchem41395
workdir0:    /tmp/qchem41395
partmpdirs =  
#
# parallel setting
#
QCRSH:           ssh
QCMPI:           slurm
QCMPIRUN:        srun
QCMACHINEFILE:   /tmp/qchem41395/hostfile

#
# env setting
#
exported envs:   QC QCAUX QCSCRATCH QCRUNNAME QCFILEPREF QCPROG QCPROG_S GUIFILE

Running Job 1 of 1 simulator_input.dat
qchem simulator_input.dat_41395.0 /tmp/qchem41395/ 0
/global/common/cori_cle7/software/qchem/5.4.2/exe/qcprog.exe_s simulator_input.dat_41395.0 /tmp/qchem41395/
                  Welcome to Q-Chem
     A Quantum Leap Into The Future Of Chemistry


 Q-Chem 5.4, Q-Chem, Inc., Pleasanton, CA (2021)

 License issued to: National Energy Research Scientific Computing Center

 E. Epifanovsky,  A. T. B. Gilbert,  Xintian Feng,  Joonho Lee,  Yuezhi Mao,  
 N. Mardirossian,  P. Pokhilko,  A. White,  M. Wormit,  M. P. Coons,  
 A. L. Dempwolff,  Zhengting Gan,  D. Hait,  P. R. Horn,  L. D. Jacobson,  
 I. Kaliman,  J. Kussmann,  A. W. Lange,  Ka Un Lao,  D. S. Levine,  Jie Liu,  
 S. C. McKenzie,  A. F. Morrison,  K. Nanda,  F. Plasser,  D. R. Rehn,  
 M. L. Vidal,  Zhi-Qiang You,  Ying Zhu,  B. Alam,  B. Albrecht,  
 A. Aldossary,  E. Alguire,  J. H. Andersen,  D. Barton,  K. Begam,  A. Behn,  
 Y. A. Bernard,  E. J. Berquist,  H. Burton,  A. Carreras,  K. Carter-Fenk,  
 Romit Chakraborty,  A. D. Chien,  K. D. Closser,  V. Cofer-Shabica,  
 S. Dasgupta,  Jia Deng,  M. de Wergifosse,  M. Diedenhofen,  Hainam Do,  
 S. Ehlert,  Po-Tung Fang,  S. Fatehi,  Qingguo Feng,  T. Friedhoff,  
 J. Gayvert,  Qinghui Ge,  G. Gidofalvi,  M. Goldey,  J. Gomes,  
 C. Gonzalez-Espinoza,  S. Gulania,  A. Gunina,  M. W. D. Hanson-Heine,  
 P. H. P. Harbach,  A. W. Hauser,  M. F. Herbst,  M. Hernandez Vera,  
 M. Hodecker,  Z. C. Holden,  S. Houck,  Xunkun Huang,  Kerwin Hui,  
 B. C. Huynh,  M. Ivanov,  Hyunjun Ji,  Hanjie Jiang,  B. Kaduk,  S. Kaehler,  
 K. Khistyaev,  Jaehoon Kim,  P. Klunzinger,  Z. Koczor-Benda,  
 Joong Hoon Koh,  D. Kosenkov,  L. Koulias,  T. Kowalczyk,  C. M. Krauter,  
 K. Kue,  A. Kunitsa,  T. Kus,  A. Landau,  K. V. Lawler,  D. Lefrancois,  
 S. Lehtola,  Rain Li,  Yi-Pei Li,  Jiashu Liang,  M. Liebenthal,  
 Hung-Hsuan Lin,  You-Sheng Lin,  Fenglai Liu,  Kuan-Yu Liu,  
 M. Loipersberger,  A. Luenser,  A. Manjanath,  P. Manohar,  E. Mansoor,  
 S. F. Manzer,  Shan-Ping Mao,  A. V. Marenich,  T. Markovich,  S. Mason,  
 S. A. Maurer,  P. F. McLaughlin,  M. F. S. J. Menger,  J.-M. Mewes,  
 S. A. Mewes,  P. Morgante,  J. W. Mullinax,  K. J. Oosterbaan,  G. Paran,  
 Alexander C. Paul,  Suranjan K. Paul,  F. Pavosevic,  Zheng Pei,  S. Prager,  
 E. I. Proynov,  E. Ramos,  B. Rana,  A. E. Rask,  A. Rettig,  R. M. Richard,  
 F. Rob,  E. Rossomme,  T. Scheele,  M. Scheurer,  M. Schneider,  
 N. Sergueev,  S. M. Sharada,  W. Skomorowski,  D. W. Small,  C. J. Stein,  
 Yu-Chuan Su,  E. J. Sundstrom,  Zhen Tao,  J. Thirman,  T. Tsuchimochi,  
 N. M. Tubman,  S. P. Veccham,  O. Vydrov,  J. Wenzel,  J. Witte,  A. Yamada,  
 Kun Yao,  S. Yeganeh,  S. R. Yost,  A. Zech,  Igor Ying Zhang,  Xing Zhang,  
 Yu Zhang,  D. Zuev,  A. Aspuru-Guzik,  A. T. Bell,  N. A. Besley,  
 K. B. Bravaya,  B. R. Brooks,  D. Casanova,  Jeng-Da Chai,  S. Coriani,  
 C. J. Cramer,  A. E. DePrince, III,  R. A. DiStasio Jr.,  A. Dreuw,  
 B. D. Dunietz,  T. R. Furlani,  W. A. Goddard III,  S. Grimme,  
 S. Hammes-Schiffer,  T. Head-Gordon,  W. J. Hehre,  Chao-Ping Hsu,  
 T.-C. Jagau,  Yousung Jung,  A. Klamt,  Jing Kong,  D. S. Lambrecht,  
 WanZhen Liang,  N. J. Mayhall,  C. W. McCurdy,  J. B. Neaton,  T. Neudecker,  
 C. Ochsenfeld,  J. A. Parkhill,  R. Peverati,  V. A. Rassolov,  Yihan Shao,  
 L. V. Slipchenko,  R. P. Steele,  J. E. Subotnik,  A. J. W. Thom,  
 A. Tkatchenko,  D. G. Truhlar,  T. Van Voorhis,  T. A. Wesolowski,  
 K. B. Whaley,  H. L. Woodcock III,  P. M. Zimmerman,  S. Faraji,  
 P. M. W. Gill,  M. Head-Gordon,  J. M. Herbert,  A. I. Krylov

 Additional authors since Version 5.4.0: 
 Chandrima Chakravarty,  L. Cunha,  R. Kang,  Yongbin Kim,  S. Kotaru,  
 Shaozhi Li,  Xiangyuan Li,  F. Matz,  A. Molle,  V. Parravicini,  
 Haisheng Ren,  Hengyuan Shen,  Yingli Su,  Hung-Yi Tsai,  C. Utku,  
 Fang Wang,  Jeff Yang,  F. Zeller

 Contributors to earlier versions of Q-Chem not listed above: 
 R. D. Adamson,  B. Austin,  R. Baer,  J. Baker,  G. J. O. Beran,  
 K. Brandhorst,  S. T. Brown,  E. F. C. Byrd,  Arup K. Chakraborty,  
 G. K. L. Chan,  Chun-Min Chang,  Yunqing Chen,  C.-L. Cheng,  
 Siu Hung Chien,  D. M. Chipman,  D. L. Crittenden,  H. Dachsel,  
 R. J. Doerksen,  A. D. Dutoi,  R. G. Edgar,  J. Fosso-Tande,  
 L. Fusti-Molnar,  D. Ghosh,  A. Ghysels,  A. Golubeva-Zadorozhnaya,  
 J. Gonthier,  M. S. Gordon,  S. R. Gwaltney,  G. Hawkins,  J. E. Herr,  
 A. Heyden,  S. Hirata,  E. G. Hohenstein,  G. Kedziora,  F. J. Keil,  
 C. Kelley,  Jihan Kim,  R. A. King,  R. Z. Khaliullin,  P. P. Korambath,  
 W. Kurlancheek,  A. Laurent,  A. M. Lee,  M. S. Lee,  S. V. Levchenko,  
 Ching Yeh Lin,  D. Liotard,  E. Livshits,  R. C. Lochan,  I. Lotan,  
 L. A. Martinez-Martinez,  P. E. Maslen,  N. Nair,  D. P. O'Neill,  
 D. Neuhauser,  E. Neuscamman,  C. M. Oana,  R. Olivares-Amaya,  R. Olson,  
 T. M. Perrine,  B. Peters,  P. A. Pieniazek,  A. Prociuk,  Y. M. Rhee,  
 J. Ritchie,  M. A. Rohrdanz,  E. Rosta,  N. J. Russ,  H. F. Schaefer III,  
 M. W. Schmidt,  N. E. Schultz,  S. Sharma,  N. Shenvi,  C. D. Sherrill,  
 A. C. Simmonett,  A. Sodt,  T. Stein,  D. Stuck,  K. S. Thanthiriwatte,  
 V. Vanovschi,  L. Vogt,  Tao Wang,  A. Warshel,  M. A. Watson,  
 C. F. Williams,  Q. Wu,  X. Xu,  Jun Yang,  W. Zhang,  Yan Zhao

   Please cite Q-Chem as follows:
  "Software for the frontiers of quantum chemistry:
   An overview of developments in the Q-Chem 5 package"
   J. Chem. Phys. 155, 084801 (2021)
   https://doi.org/10.1063/5.0055522 (open access)

 Q-Chem 5.4.2 for Intel X86 EM64T Linux

 Parts of Q-Chem use Armadillo 9.900.5 (Nocturnal Misbehaviour).
 http://arma.sourceforge.net/

 Q-Chem begins on Mon May  9 18:15:22 2022  

 Host: cori08
0

     Scratch files written to /tmp/qchem41395//
 Dec1321 |scratch|qcdevops|jenkins|workspace|build_RNUM 7470   
 Processing $rem in /global/common/cori_cle7/software/qchem/5.4.2/config/preferences:
 Processing $rem in /global/homes/m/mzhou035/.qchemrc:

 Checking the input file for inconsistencies... 	...done.

--------------------------------------------------------------
User input:
--------------------------------------------------------------
$molecule
0 1
C	1.21238773	0.11934573	1.12336494
C	0.27795805	-0.77559402	1.55254456
N	-0.83301873	-1.02272272	0.79391547
C	-1.08935878	-0.41897305	-0.51446736
N	-0.02818888	0.34494393	-0.94313243
C	1.05062057	0.75541527	-0.11270664
O	-2.15791876	-0.75738185	-1.13702602
O	1.78198174	1.70059753	-0.48614264
H	0.26958048	-1.32980550	2.46354171
H	-1.49480009	-1.73094623	1.05184644
H	-0.17231383	0.88010939	-1.80073333
H	2.10117797	0.48247751	1.73209796
$end

$rem
jobtype                force
exchange               HF
correlation            PBE
basis                  6-31G
SCF_CONVERGENCE 11
symmetry false
sym_ignore true
$end
--------------------------------------------------------------
 ----------------------------------------------------------------
             Standard Nuclear Orientation (Angstroms)
    I     Atom           X                Y                Z
 ----------------------------------------------------------------
    1      C       1.2123877300     0.1193457300     1.1233649400
    2      C       0.2779580500    -0.7755940200     1.5525445600
    3      N      -0.8330187300    -1.0227227200     0.7939154700
    4      C      -1.0893587800    -0.4189730500    -0.5144673600
    5      N      -0.0281888800     0.3449439300    -0.9431324300
    6      C       1.0506205700     0.7554152700    -0.1127066400
    7      O      -2.1579187600    -0.7573818500    -1.1370260200
    8      O       1.7819817400     1.7005975300    -0.4861426400
    9      H       0.2695804800    -1.3298055000     2.4635417100
   10      H      -1.4948000900    -1.7309462300     1.0518464400
   11      H      -0.1723138300     0.8801093900    -1.8007333300
   12      H       2.1011779700     0.4824775100     1.7320979600
 ----------------------------------------------------------------
 Nuclear Repulsion Energy =         352.38789780 hartrees
 There are       29 alpha and       29 beta electrons
 Requested basis set is 6-31G
 There are 32 shells and 80 basis functions

 Total QAlloc Memory Limit  96000 MB
 Mega-Array Size       188 MB
 MEM_STATIC part       192 MB

                       Distance Matrix (Angstroms)
             C (  1)   C (  2)   N (  3)   C (  4)   N (  5)   C (  6)
   C (  2)  1.363184
   N (  3)  2.365702  1.367794
   C (  4)  2.875816  2.503851  1.463588
   N (  5)  2.420813  2.752769  2.352785  1.376010
   C (  6)  1.399509  2.390410  2.744419  2.473886  1.421944
   O (  7)  4.151745  3.628721  2.356756  1.282155  2.405923  3.692223
   O (  8)  2.327082  3.542578  3.986634  3.569030  2.307239  1.252084
   H (  9)  2.187464  1.066366  2.024272  3.397774  3.807740  3.405176
   H ( 10)  3.279872  2.075107  1.003027  2.083025  3.231131  3.743974
   H ( 11)  3.323629  3.766772  3.284738  2.045255  1.021104  2.088193
   H ( 12)  1.136824  2.222412  3.428604  4.004896  3.421984  2.140437
             O (  7)   O (  8)   H (  9)   H ( 10)   H ( 11)
   O (  8)  4.689150
   H (  9)  4.380012  4.491251
   H ( 10)  2.485702  4.987805  2.294959
   H ( 11)  2.657915  2.494117  4.823177  4.087027
   H ( 12)  5.282900  2.550744  2.678456  4.277037  4.219926
 
 A cutoff of  1.0D-14 yielded    492 shell pairs
 There are      3252 function pairs
 Smallest overlap matrix eigenvalue = 1.87E-03

 Scale SEOQF with 1.000000e-01/1.000000e-01/1.000000e-01

 Standard Electronic Orientation quadrupole field applied
 Nucleus-field energy     =     0.0000000006 hartrees
 Guess from superposition of atomic densities
 Warning:  Energy on first SCF cycle will be non-variational
 SAD guess density has 58.000000 electrons

 -----------------------------------------------------------------------
  General SCF calculation program by
  Eric Jon Sundstrom, Paul Horn, Yuezhi Mao, Dmitri Zuev, Alec White,
  David Stuck, Shaama M.S., Shane Yost, Joonho Lee, David Small,
  Daniel Levine, Susi Lehtola, Hugh Burton, Evgeny Epifanovsky,
  Bang C. Huynh
 -----------------------------------------------------------------------
 Exchange:     1.0000 Hartree-Fock
 Correlation:  1.0000 PBE
 Using SG-1 standard quadrature grid
 using 32 threads for integral computing
 -------------------------------------------------------
 OpenMP Integral computing Module                
 Release: version 1.0, May 2013, Q-Chem Inc. Pittsburgh 
 -------------------------------------------------------
 A restricted SCF calculation will be
 performed using DIIS
 SCF converges when DIIS error is below 1.0e-11
 ---------------------------------------
  Cycle       Energy         DIIS error
 ---------------------------------------
    1    -416.9424556588      1.21e-01  
    2    -413.9529278674      1.76e-02  
    3    -414.0355976934      1.70e-02  
    4    -414.2181045162      1.33e-03  
    5    -414.2213263249      5.71e-04  
    6    -414.2218269992      2.14e-04  
    7    -414.2219812282      9.49e-05  
    8    -414.2220046229      4.08e-05  
    9    -414.2220078120      1.36e-05  
   10    -414.2220081685      5.05e-06  
   11    -414.2220082160      1.58e-06  
   12    -414.2220082204      6.57e-07  
   13    -414.2220082211      1.68e-07  
   14    -414.2220082211      6.64e-08  
   15    -414.2220082212      2.15e-08  
   16    -414.2220082212      8.97e-09  
   17    -414.2220082212      3.37e-09  
   18    -414.2220082212      8.91e-10  
   19    -414.2220082212      3.02e-10  
   20    -414.2220082212      1.44e-10  
   21    -414.2220082212      6.65e-11  
   22    -414.2220082212      2.29e-11  
   23    -414.2220082212      4.74e-12  Convergence criterion met
 ---------------------------------------
 SCF time:   CPU 79.82s  wall 3.00s 
 SCF   energy in the final basis set =     -414.2220082212
 Total energy in the final basis set =     -414.2220082212
 
 --------------------------------------------------------------
 
                    Orbital Energies (a.u.)
 --------------------------------------------------------------
 
 Alpha MOs
 -- Occupied --
-20.5982 -20.5807 -15.6887 -15.6867 -11.4870 -11.4289 -11.3871 -11.2973
 -1.4785  -1.4457  -1.3611  -1.3081  -1.1441  -0.9928  -0.9557  -0.8566
 -0.8141  -0.7758  -0.7230  -0.7071  -0.6807  -0.6499  -0.6312  -0.6058
 -0.5734  -0.5189  -0.4926  -0.4754  -0.4042
 -- Virtual --
  0.0353   0.0934   0.1628   0.2116   0.2289   0.2423   0.2590   0.3096
  0.3190   0.3743   0.3830   0.4485   0.4933   0.5225   0.6284   0.6538
  0.6959   0.7070   0.7527   0.7677   0.7766   0.8086   0.8270   0.8452
  0.8509   0.8956   0.9443   1.0200   1.0383   1.0503   1.0593   1.1012
  1.1052   1.1568   1.1657   1.2024   1.2356   1.2702   1.2917   1.3138
  1.3293   1.3913   1.4066   1.5070   1.5765   1.6015   1.6819   1.7893
  1.8455   2.2227   2.2704
 --------------------------------------------------------------
 
          Ground-State Mulliken Net Atomic Charges

     Atom                 Charge (a.u.)
  ----------------------------------------
      1 C                    -0.418562
      2 C                     0.226659
      3 N                    -1.044408
      4 C                     1.117739
      5 N                    -1.038998
      6 C                     0.803873
      7 O                    -0.618976
      8 O                    -0.612369
      9 H                     0.316158
     10 H                     0.460369
     11 H                     0.476976
     12 H                     0.331538
  ----------------------------------------
  Sum of atomic charges =     0.000000

 -----------------------------------------------------------------
                    Cartesian Multipole Moments
 -----------------------------------------------------------------
    Charge (ESU x 10^10)
                -0.0000
    Dipole Moment (Debye)
         X      -0.1159      Y      -2.9218      Z       4.2578
       Tot       5.1652
    Quadrupole Moments (Debye-Ang)
        XX     -58.8228     XY      -6.7738     YY     -48.1796
        XZ      -2.1302     YZ      -6.4111     ZZ     -39.3261
    Octopole Moments (Debye-Ang^2)
       XXX       7.8288    XXY      -6.2787    XYY     -18.9360
       YYY     -16.3511    XXZ      20.9303    XYZ      13.7678
       YYZ       8.0131    XZZ       6.4906    YZZ      -2.3756
       ZZZ       1.6172
    Hexadecapole Moments (Debye-Ang^3)
      XXXX    -546.4942   XXXY    -148.7058   XXYY    -145.0817
      XYYY    -131.6985   YYYY    -266.8188   XXXZ     -76.6658
      XXYZ       9.2161   XYYZ     -22.0630   YYYZ      32.0024
      XXZZ    -139.1881   XYZZ     -42.3976   YYZZ     -79.4356
      XZZZ     -56.2221   YZZZ       7.2839   ZZZZ    -266.7624
 -----------------------------------------------------------------
 Calculating analytic gradient of the SCF energy
 Gradient of SCF Energy
            1           2           3           4           5           6
    1  -0.0069486  -0.0027076   0.0067346   0.0330422   0.0259671  -0.0134314
    2   0.0220648  -0.0233370  -0.0208817   0.0629925  -0.0149714  -0.0556324
    3  -0.0562119   0.0293117   0.0566857  -0.0122889  -0.0166376   0.0504384
            7           8           9          10          11          12
    1  -0.0961413   0.0396139  -0.0098150  -0.0082914  -0.0087749   0.0407525
    2  -0.0412386   0.0527954  -0.0074590  -0.0146705   0.0174612   0.0228768
    3  -0.0481766  -0.0101160   0.0001045   0.0038304  -0.0221683   0.0252285
 Max gradient component =       9.614E-02
 RMS gradient           =       3.451E-02
 Gradient time:  CPU 12.65 s  wall 0.40 s
 Total job time:  3.38s(wall), 104.80s(cpu) 
 Mon May  9 18:15:25 2022

        *************************************************************
        *                                                           *
        *  Thank you very much for using Q-Chem.  Have a nice day.  *
        *                                                           *
        *************************************************************


remove work dirs /tmp/qchem41395.0 -- /tmp/qchem41395.-1
rm -rf /tmp/qchem41395
