You are running Q-Chem version: 5.4.2

#
# job setting
#
local host:  nid12749
current dir: /global/homes/m/mzhou035/Force_design
input file:  simulator_input.dat
output file: 
nprocs     : 0
nthreads   : 32
#
# qchem installation setting
#
QC:          /global/common/cori_cle7/software/qchem/5.4.2
QCAUX:       /global/common/cori_cle7/software/qchem/5.4.2/qcaux
QCPROG:      /global/common/cori_cle7/software/qchem/5.4.2/exe/qcprog.exe_s
QCPROG_S:    /global/common/cori_cle7/software/qchem/5.4.2/exe/qcprog.exe_s
PARALLEL:    -DSERIAL
QCMPI:       slurm
#
# qchem directory setting
#
qcrun:       qchem31455
QCSCRATCH:   /global/cscratch1/sd/mzhou035
QCLOCALSCR:  /tmp
QCTMPDIR:    /tmp
QCFILEPREF:  /tmp/qchem31455
QCSAVEDIR:   
workdirs:    /tmp/qchem31455
workdir0:    /tmp/qchem31455
partmpdirs =  
#
# parallel setting
#
QCRSH:           ssh
QCMPI:           slurm
QCMPIRUN:        srun
QCMACHINEFILE:   /tmp/qchem31455/hostfile

#
# env setting
#
exported envs:   QC QCAUX QCSCRATCH QCRUNNAME QCFILEPREF QCPROG QCPROG_S GUIFILE

Running Job 1 of 1 simulator_input.dat
qchem simulator_input.dat_31455.0 /tmp/qchem31455/ 0
/global/common/cori_cle7/software/qchem/5.4.2/exe/qcprog.exe_s simulator_input.dat_31455.0 /tmp/qchem31455/
                  Welcome to Q-Chem
     A Quantum Leap Into The Future Of Chemistry


 Q-Chem 5.4, Q-Chem, Inc., Pleasanton, CA (2021)

 License issued to: National Energy Research Scientific Computing Center

 E. Epifanovsky,  A. T. B. Gilbert,  Xintian Feng,  Joonho Lee,  Yuezhi Mao,  
 N. Mardirossian,  P. Pokhilko,  A. White,  M. Wormit,  M. P. Coons,  
 A. L. Dempwolff,  Zhengting Gan,  D. Hait,  P. R. Horn,  L. D. Jacobson,  
 I. Kaliman,  J. Kussmann,  A. W. Lange,  Ka Un Lao,  D. S. Levine,  Jie Liu,  
 S. C. McKenzie,  A. F. Morrison,  K. Nanda,  F. Plasser,  D. R. Rehn,  
 M. L. Vidal,  Zhi-Qiang You,  Ying Zhu,  B. Alam,  B. Albrecht,  
 A. Aldossary,  E. Alguire,  J. H. Andersen,  D. Barton,  K. Begam,  A. Behn,  
 Y. A. Bernard,  E. J. Berquist,  H. Burton,  A. Carreras,  K. Carter-Fenk,  
 Romit Chakraborty,  A. D. Chien,  K. D. Closser,  V. Cofer-Shabica,  
 S. Dasgupta,  Jia Deng,  M. de Wergifosse,  M. Diedenhofen,  Hainam Do,  
 S. Ehlert,  Po-Tung Fang,  S. Fatehi,  Qingguo Feng,  T. Friedhoff,  
 J. Gayvert,  Qinghui Ge,  G. Gidofalvi,  M. Goldey,  J. Gomes,  
 C. Gonzalez-Espinoza,  S. Gulania,  A. Gunina,  M. W. D. Hanson-Heine,  
 P. H. P. Harbach,  A. W. Hauser,  M. F. Herbst,  M. Hernandez Vera,  
 M. Hodecker,  Z. C. Holden,  S. Houck,  Xunkun Huang,  Kerwin Hui,  
 B. C. Huynh,  M. Ivanov,  Hyunjun Ji,  Hanjie Jiang,  B. Kaduk,  S. Kaehler,  
 K. Khistyaev,  Jaehoon Kim,  P. Klunzinger,  Z. Koczor-Benda,  
 Joong Hoon Koh,  D. Kosenkov,  L. Koulias,  T. Kowalczyk,  C. M. Krauter,  
 K. Kue,  A. Kunitsa,  T. Kus,  A. Landau,  K. V. Lawler,  D. Lefrancois,  
 S. Lehtola,  Rain Li,  Yi-Pei Li,  Jiashu Liang,  M. Liebenthal,  
 Hung-Hsuan Lin,  You-Sheng Lin,  Fenglai Liu,  Kuan-Yu Liu,  
 M. Loipersberger,  A. Luenser,  A. Manjanath,  P. Manohar,  E. Mansoor,  
 S. F. Manzer,  Shan-Ping Mao,  A. V. Marenich,  T. Markovich,  S. Mason,  
 S. A. Maurer,  P. F. McLaughlin,  M. F. S. J. Menger,  J.-M. Mewes,  
 S. A. Mewes,  P. Morgante,  J. W. Mullinax,  K. J. Oosterbaan,  G. Paran,  
 Alexander C. Paul,  Suranjan K. Paul,  F. Pavosevic,  Zheng Pei,  S. Prager,  
 E. I. Proynov,  E. Ramos,  B. Rana,  A. E. Rask,  A. Rettig,  R. M. Richard,  
 F. Rob,  E. Rossomme,  T. Scheele,  M. Scheurer,  M. Schneider,  
 N. Sergueev,  S. M. Sharada,  W. Skomorowski,  D. W. Small,  C. J. Stein,  
 Yu-Chuan Su,  E. J. Sundstrom,  Zhen Tao,  J. Thirman,  T. Tsuchimochi,  
 N. M. Tubman,  S. P. Veccham,  O. Vydrov,  J. Wenzel,  J. Witte,  A. Yamada,  
 Kun Yao,  S. Yeganeh,  S. R. Yost,  A. Zech,  Igor Ying Zhang,  Xing Zhang,  
 Yu Zhang,  D. Zuev,  A. Aspuru-Guzik,  A. T. Bell,  N. A. Besley,  
 K. B. Bravaya,  B. R. Brooks,  D. Casanova,  Jeng-Da Chai,  S. Coriani,  
 C. J. Cramer,  A. E. DePrince, III,  R. A. DiStasio Jr.,  A. Dreuw,  
 B. D. Dunietz,  T. R. Furlani,  W. A. Goddard III,  S. Grimme,  
 S. Hammes-Schiffer,  T. Head-Gordon,  W. J. Hehre,  Chao-Ping Hsu,  
 T.-C. Jagau,  Yousung Jung,  A. Klamt,  Jing Kong,  D. S. Lambrecht,  
 WanZhen Liang,  N. J. Mayhall,  C. W. McCurdy,  J. B. Neaton,  T. Neudecker,  
 C. Ochsenfeld,  J. A. Parkhill,  R. Peverati,  V. A. Rassolov,  Yihan Shao,  
 L. V. Slipchenko,  R. P. Steele,  J. E. Subotnik,  A. J. W. Thom,  
 A. Tkatchenko,  D. G. Truhlar,  T. Van Voorhis,  T. A. Wesolowski,  
 K. B. Whaley,  H. L. Woodcock III,  P. M. Zimmerman,  S. Faraji,  
 P. M. W. Gill,  M. Head-Gordon,  J. M. Herbert,  A. I. Krylov

 Additional authors since Version 5.4.0: 
 Chandrima Chakravarty,  L. Cunha,  R. Kang,  Yongbin Kim,  S. Kotaru,  
 Shaozhi Li,  Xiangyuan Li,  F. Matz,  A. Molle,  V. Parravicini,  
 Haisheng Ren,  Hengyuan Shen,  Yingli Su,  Hung-Yi Tsai,  C. Utku,  
 Fang Wang,  Jeff Yang,  F. Zeller

 Contributors to earlier versions of Q-Chem not listed above: 
 R. D. Adamson,  B. Austin,  R. Baer,  J. Baker,  G. J. O. Beran,  
 K. Brandhorst,  S. T. Brown,  E. F. C. Byrd,  Arup K. Chakraborty,  
 G. K. L. Chan,  Chun-Min Chang,  Yunqing Chen,  C.-L. Cheng,  
 Siu Hung Chien,  D. M. Chipman,  D. L. Crittenden,  H. Dachsel,  
 R. J. Doerksen,  A. D. Dutoi,  R. G. Edgar,  J. Fosso-Tande,  
 L. Fusti-Molnar,  D. Ghosh,  A. Ghysels,  A. Golubeva-Zadorozhnaya,  
 J. Gonthier,  M. S. Gordon,  S. R. Gwaltney,  G. Hawkins,  J. E. Herr,  
 A. Heyden,  S. Hirata,  E. G. Hohenstein,  G. Kedziora,  F. J. Keil,  
 C. Kelley,  Jihan Kim,  R. A. King,  R. Z. Khaliullin,  P. P. Korambath,  
 W. Kurlancheek,  A. Laurent,  A. M. Lee,  M. S. Lee,  S. V. Levchenko,  
 Ching Yeh Lin,  D. Liotard,  E. Livshits,  R. C. Lochan,  I. Lotan,  
 L. A. Martinez-Martinez,  P. E. Maslen,  N. Nair,  D. P. O'Neill,  
 D. Neuhauser,  E. Neuscamman,  C. M. Oana,  R. Olivares-Amaya,  R. Olson,  
 T. M. Perrine,  B. Peters,  P. A. Pieniazek,  A. Prociuk,  Y. M. Rhee,  
 J. Ritchie,  M. A. Rohrdanz,  E. Rosta,  N. J. Russ,  H. F. Schaefer III,  
 M. W. Schmidt,  N. E. Schultz,  S. Sharma,  N. Shenvi,  C. D. Sherrill,  
 A. C. Simmonett,  A. Sodt,  T. Stein,  D. Stuck,  K. S. Thanthiriwatte,  
 V. Vanovschi,  L. Vogt,  Tao Wang,  A. Warshel,  M. A. Watson,  
 C. F. Williams,  Q. Wu,  X. Xu,  Jun Yang,  W. Zhang,  Yan Zhao

   Please cite Q-Chem as follows:
  "Software for the frontiers of quantum chemistry:
   An overview of developments in the Q-Chem 5 package"
   J. Chem. Phys. 155, 084801 (2021)
   https://doi.org/10.1063/5.0055522 (open access)

 Q-Chem 5.4.2 for Intel X86 EM64T Linux

 Parts of Q-Chem use Armadillo 9.900.5 (Nocturnal Misbehaviour).
 http://arma.sourceforge.net/

 Q-Chem begins on Mon May 16 16:39:35 2022  

 Host: cori06
0

     Scratch files written to /tmp/qchem31455//
 Dec1321 |scratch|qcdevops|jenkins|workspace|build_RNUM 7470   
 Processing $rem in /global/common/cori_cle7/software/qchem/5.4.2/config/preferences:
 Processing $rem in /global/homes/m/mzhou035/.qchemrc:

 Checking the input file for inconsistencies... 	...done.

--------------------------------------------------------------
User input:
--------------------------------------------------------------
$molecule
0 1
C	1.137420388	0.029576564	1.187580049
C	0.087946577	-0.688858971	1.672436403
N	-0.980165494	-0.906520181	0.806536632
C	-1.039910819	-0.432198751	-0.534023956
N	0.004311676	0.383078475	-0.873576702
C	1.089210364	0.681752536	-0.100527416
O	-1.985295947	-0.703314527	-1.287048326
O	1.874601536	1.558837033	-0.564452470
H	-0.023510721	-1.163167820	2.672265049
H	-1.832863185	-1.341190171	1.105579340
H	-0.029488491	0.859702984	-1.776887513
H	2.006835921	0.219923799	1.815438187
$end

$rem
jobtype                force
exchange               PBE
correlation            PBE
basis                  6-31G
SCF_CONVERGENCE 11
symmetry false
sym_ignore true
$end
--------------------------------------------------------------
 ----------------------------------------------------------------
             Standard Nuclear Orientation (Angstroms)
    I     Atom           X                Y                Z
 ----------------------------------------------------------------
    1      C       1.1374203880     0.0295765640     1.1875800490
    2      C       0.0879465770    -0.6888589710     1.6724364030
    3      N      -0.9801654940    -0.9065201810     0.8065366320
    4      C      -1.0399108190    -0.4321987510    -0.5340239560
    5      N       0.0043116760     0.3830784750    -0.8735767020
    6      C       1.0892103640     0.6817525360    -0.1005274160
    7      O      -1.9852959470    -0.7033145270    -1.2870483260
    8      O       1.8746015360     1.5588370330    -0.5644524700
    9      H      -0.0235107210    -1.1631678200     2.6722650490
   10      H      -1.8328631850    -1.3411901710     1.1055793400
   11      H      -0.0294884910     0.8597029840    -1.7768875130
   12      H       2.0068359210     0.2199237990     1.8154381870
 ----------------------------------------------------------------
 Nuclear Repulsion Energy =         354.83991194 hartrees
 There are       29 alpha and       29 beta electrons
 Requested basis set is 6-31G
 There are 32 shells and 80 basis functions

 Total QAlloc Memory Limit  96000 MB
 Mega-Array Size       188 MB
 MEM_STATIC part       192 MB

                       Distance Matrix (Angstroms)
             C (  1)   C (  2)   N (  3)   C (  4)   N (  5)   C (  6)
   C (  2)  1.361114
   N (  3)  2.346410  1.392129
   C (  4)  2.813881  2.491266  1.423254
   N (  5)  2.378501  2.763734  2.335603  1.367616
   C (  6)  1.444603  2.454487  2.761828  2.441713  1.365217
   O (  7)  4.051206  3.613460  2.331240  1.238670  2.304289  3.574749
   O (  8)  2.439609  3.639773  4.013389  3.529806  2.230684  1.265442
   H (  9)  2.230401  1.112227  2.112344  3.442045  3.868416  3.511447
   H ( 10)  3.272355  2.106270  1.002725  2.035519  3.203962  3.753066
   H ( 11)  3.292242  3.782813  3.270690  2.057832  1.021902  2.023200
   H ( 12)  1.089184  2.128021  3.347975  3.902294  3.356713  2.173993
             O (  7)   O (  8)   H (  9)   H ( 10)   H ( 11)
   O (  8)  4.531918
   H (  9)  4.442548  4.635567
   H ( 10)  2.480885  4.994443  2.399990
   H ( 11)  2.551107  2.363122  4.887433  4.050272
   H ( 12)  5.139544  2.733872  2.601807  4.205266  4.178605
 
 A cutoff of  1.0D-14 yielded    492 shell pairs
 There are      3252 function pairs
 Smallest overlap matrix eigenvalue = 1.90E-03

 Scale SEOQF with 1.000000e-01/1.000000e-01/1.000000e-01

 Standard Electronic Orientation quadrupole field applied
 Nucleus-field energy     =    -0.0000000009 hartrees
 Guess from superposition of atomic densities
 Warning:  Energy on first SCF cycle will be non-variational
 SAD guess density has 58.000000 electrons

 -----------------------------------------------------------------------
  General SCF calculation program by
  Eric Jon Sundstrom, Paul Horn, Yuezhi Mao, Dmitri Zuev, Alec White,
  David Stuck, Shaama M.S., Shane Yost, Joonho Lee, David Small,
  Daniel Levine, Susi Lehtola, Hugh Burton, Evgeny Epifanovsky,
  Bang C. Huynh
 -----------------------------------------------------------------------
 Exchange:  PBE      Correlation:  PBE
 Using SG-1 standard quadrature grid
 using 32 threads for integral computing
 -------------------------------------------------------
 OpenMP Integral computing Module                
 Release: version 1.0, May 2013, Q-Chem Inc. Pittsburgh 
 -------------------------------------------------------
 A restricted SCF calculation will be
 performed using DIIS
 SCF converges when DIIS error is below 1.0e-11
 ---------------------------------------
  Cycle       Energy         DIIS error
 ---------------------------------------
    1    -415.9186772744      1.14e-01  
    2    -413.9844686105      1.86e-02  
    3    -411.7364442410      5.76e-02  
    4    -414.1139221331      1.20e-02  
    5    -414.2196087524      4.26e-03  
    6    -414.2285908452      2.44e-03  
    7    -414.2322417293      8.91e-04  
    8    -414.2328620903      2.29e-04  
    9    -414.2328942824      9.59e-05  
   10    -414.2329011792      2.30e-05  
   11    -414.2329014277      1.50e-05  
   12    -414.2329016224      2.77e-06  
   13    -414.2329016283      1.08e-06  
   14    -414.2329016293      2.26e-07  
   15    -414.2329016294      1.02e-07  
   16    -414.2329016294      5.03e-09  
   17    -414.2329016294      6.01e-10  
   18    -414.2329016294      4.71e-11  
   19    -414.2329016294      5.73e-12  Convergence criterion met
 ---------------------------------------
 SCF time:   CPU 74.56s  wall 3.00s 
 SCF   energy in the final basis set =     -414.2329016294
 Total energy in the final basis set =     -414.2329016294
 
 --------------------------------------------------------------
 
                    Orbital Energies (a.u.)
 --------------------------------------------------------------
 
 Alpha MOs
 -- Occupied --
-18.7624 -18.7450 -14.0779 -14.0641 -10.0520 -10.0120  -9.9880  -9.9231
 -1.0053  -0.9609  -0.9068  -0.8637  -0.7369  -0.6421  -0.6232  -0.5533
 -0.5182  -0.4863  -0.4412  -0.4274  -0.3957  -0.3721  -0.3601  -0.3539
 -0.3337  -0.2449  -0.2446  -0.2206  -0.2082
 -- Virtual --
 -0.0797  -0.0366   0.0269   0.0610   0.0683   0.0796   0.1193   0.1419
  0.1748   0.2139   0.2205   0.2748   0.2914   0.3620   0.4204   0.4376
  0.4696   0.4941   0.5283   0.5460   0.5490   0.5668   0.5876   0.6034
  0.6141   0.6250   0.6869   0.7518   0.7715   0.7808   0.7961   0.8092
  0.8201   0.8702   0.8825   0.9287   0.9628   0.9715   0.9960   1.0311
  1.0337   1.0876   1.1253   1.2113   1.3372   1.3640   1.4214   1.4749
  1.5889   1.9428   1.9988
 --------------------------------------------------------------
 
          Ground-State Mulliken Net Atomic Charges

     Atom                 Charge (a.u.)
  ----------------------------------------
      1 C                    -0.198287
      2 C                     0.147288
      3 N                    -0.666713
      4 C                     0.635377
      5 N                    -0.655601
      6 C                     0.468570
      7 O                    -0.385899
      8 O                    -0.429273
      9 H                     0.198762
     10 H                     0.348241
     11 H                     0.363629
     12 H                     0.173905
  ----------------------------------------
  Sum of atomic charges =     0.000000

 -----------------------------------------------------------------
                    Cartesian Multipole Moments
 -----------------------------------------------------------------
    Charge (ESU x 10^10)
                -0.0000
    Dipole Moment (Debye)
         X      -1.1720      Y      -2.1318      Z       3.7713
       Tot       4.4878
    Quadrupole Moments (Debye-Ang)
        XX     -53.3587     XY      -4.9070     YY     -48.0216
        XZ      -3.4763     YZ      -4.8185     ZZ     -39.2225
    Octopole Moments (Debye-Ang^2)
       XXX      -5.9712    XXY      -9.3740    XYY     -13.7161
       YYY      -5.1626    XXZ      18.5650    XYZ      11.8129
       YYZ       2.1621    XZZ       4.1493    YZZ      -1.5038
       ZZZ       0.6289
    Hexadecapole Moments (Debye-Ang^3)
      XXXX    -493.1702   XXXY    -131.4950   XXYY    -129.2976
      XYYY    -120.4063   YYYY    -227.2120   XXXZ     -63.0546
      XXYZ       7.8083   XYYZ     -18.0416   YYYZ      40.0599
      XXZZ    -138.6974   XYZZ     -37.6008   YYZZ     -85.2613
      XZZZ     -53.1444   YZZZ      12.1639   ZZZZ    -300.6833
 -----------------------------------------------------------------
 Calculating analytic gradient of the SCF energy
 Gradient of SCF Energy
            1           2           3           4           5           6
    1  -0.0169915   0.0125664  -0.0035559   0.0068794   0.0171534  -0.0230286
    2  -0.0024730   0.0082271  -0.0060942   0.0062029   0.0067075  -0.0254155
    3  -0.0224591   0.0089237   0.0062050  -0.0159444   0.0179779  -0.0018538
            7           8           9          10          11          12
    1   0.0167107  -0.0131453  -0.0067753   0.0091153   0.0016611  -0.0005897
    2   0.0055837   0.0039713  -0.0086334   0.0097489   0.0030411  -0.0008664
    3   0.0098496  -0.0105148   0.0112086  -0.0048726   0.0002116   0.0012682
 Max gradient component =       2.542E-02
 RMS gradient           =       1.124E-02
 Gradient time:  CPU 14.15 s  wall 0.45 s
 Total job time:  3.58s(wall), 103.88s(cpu) 
 Mon May 16 16:39:38 2022

        *************************************************************
        *                                                           *
        *  Thank you very much for using Q-Chem.  Have a nice day.  *
        *                                                           *
        *************************************************************


remove work dirs /tmp/qchem31455.0 -- /tmp/qchem31455.-1
rm -rf /tmp/qchem31455
