You are running Q-Chem version: 5.2.0

#
# job setting
#
local host:  nid00172
current dir: /global/homes/m/mzhou035/Force_design
input file:  simulator_input.dat
output file: 
nprocs     : 0
nthreads   : 32
#
# qchem installation setting
#
QC:          /global/common/cori/software/qchem/5.2
QCAUX:       /global/common/cori/software/qchem/5.2/qcaux
QCPROG:      /global/common/cori/software/qchem/5.2/exe/qcprog.exe_s
QCPROG_S:    /global/common/cori/software/qchem/5.2/exe/qcprog.exe_s
PARALLEL:    -DSERIAL
QCMPI:       slurm
#
# qchem directory setting
#
qcrun:       qchem2627
QCSCRATCH:   /global/cscratch1/sd/mzhou035
QCLOCALSCR:  /tmp
QCTMPDIR:    /tmp
QCFILEPREF:  /tmp/qchem2627
QCSAVEDIR:   
workdirs:    /tmp/qchem2627
workdir0:    /tmp/qchem2627
partmpdirs =  
#
# parallel setting
#
QCRSH:           ssh
QCMPI:           slurm
QCMPIRUN:        srun
QCMACHINEFILE:   /tmp/qchem2627/hostfile

#
# env setting
#
exported envs:   QC QCAUX QCSCRATCH QCRUNNAME QCFILEPREF QCPROG QCPROG_S GUIFILE

Running Job 1 of 1 simulator_input.dat
qchem simulator_input.dat_2627.0 /tmp/qchem2627/ 0
/global/common/cori/software/qchem/5.2/exe/qcprog.exe_s simulator_input.dat_2627.0 /tmp/qchem2627/
                  Welcome to Q-Chem
     A Quantum Leap Into The Future Of Chemistry


 Q-Chem 5.2, Q-Chem, Inc., Pleasanton, CA (2019)

 License issued to: National Energy Research Scientific Computing Center

 Yihan Shao,  Zhengting Gan,  E. Epifanovsky,  A. T. B. Gilbert,  M. Wormit,  
 J. Kussmann,  A. W. Lange,  A. Behn,  Jia Deng,  Xintian Feng,  D. Ghosh,  
 M. Goldey,  P. R. Horn,  L. D. Jacobson,  I. Kaliman,  T. Kus,  A. Landau,  
 Jie Liu,  E. I. Proynov,  R. M. Richard,  R. P. Steele,  E. J. Sundstrom,  
 H. L. Woodcock III,  P. M. Zimmerman,  D. Zuev,  B. Albrecht,  E. Alguire,  
 S. A. Baeppler,  D. Barton,  Z. Benda,  Y. A. Bernard,  E. J. Berquist,  
 K. B. Bravaya,  H. Burton,  D. Casanova,  Chun-Min Chang,  Yunqing Chen,  
 A. Chien,  K. D. Closser,  M. P. Coons,  S. Coriani,  S. Dasgupta,  
 A. L. Dempwolff,  M. Diedenhofen,  Hainam Do,  R. G. Edgar,  Po-Tung Fang,  
 S. Faraji,  S. Fatehi,  Qingguo Feng,  K. D. Fenk,  J. Fosso-Tande,  
 J. Gayvert,  Qinghui Ge,  A. Ghysels,  G. Gidofalvi,  J. Gomes,  
 J. Gonthier,  A. Gunina,  D. Hait,  M. W. D. Hanson-Heine,  
 P. H. P. Harbach,  A. W. Hauser,  M. F. Herbst,  J. E. Herr,  
 E. G. Hohenstein,  Z. C. Holden,  Kerwin Hui,  B. C. Huynh,  T.-C. Jagau,  
 Hyunjun Ji,  B. Kaduk,  K. Khistyaev,  Jaehoon Kim,  P. Klunzinger,  K. Koh,  
 D. Kosenkov,  L. Koulias,  T. Kowalczyk,  C. M. Krauter,  A. Kunitsa,  
 Ka Un Lao,  A. Laurent,  K. V. Lawler,  Joonho Lee,  D. Lefrancois,  
 S. Lehtola,  D. S. Levine,  Yi-Pei Li,  You-Sheng Lin,  Fenglai Liu,  
 E. Livshits,  A. Luenser,  P. Manohar,  E. Mansoor,  S. F. Manzer,  
 Shan-Ping Mao,  Yuezhi Mao,  N. Mardirossian,  A. V. Marenich,  
 T. Markovich,  L. A. Martinez-Martinez,  S. A. Maurer,  N. J. Mayhall,  
 S. C. McKenzie,  J.-M. Mewes,  P. Morgante,  A. F. Morrison,  
 J. W. Mullinax,  K. Nanda,  T. S. Nguyen-Beck,  R. Olivares-Amaya,  
 J. A. Parkhill,  Zheng Pei,  T. M. Perrine,  F. Plasser,  P. Pokhilko,  
 S. Prager,  A. Prociuk,  E. Ramos,  D. R. Rehn,  F. Rob,  M. Scheurer,  
 M. Schneider,  N. Sergueev,  S. M. Sharada,  S. Sharma,  D. W. Small,  
 T. Stauch,  T. Stein,  Yu-Chuan Su,  A. J. W. Thom,  A. Tkatchenko,  
 T. Tsuchimochi,  N. M. Tubman,  L. Vogt,  M. L. Vidal,  O. Vydrov,  
 M. A. Watson,  J. Wenzel,  M. de Wergifosse,  T. A. Wesolowski,  A. White,  
 J. Witte,  A. Yamada,  Jun Yang,  K. Yao,  S. Yeganeh,  S. R. Yost,  
 Zhi-Qiang You,  A. Zech,  Igor Ying Zhang,  Xing Zhang,  Yan Zhao,  
 Ying Zhu,  B. R. Brooks,  G. K. L. Chan,  C. J. Cramer,  M. S. Gordon,  
 W. J. Hehre,  A. Klamt,  M. W. Schmidt,  C. D. Sherrill,  D. G. Truhlar,  
 A. Aspuru-Guzik,  R. Baer,  A. T. Bell,  N. A. Besley,  Jeng-Da Chai,  
 A. E. DePrince, III,  R. A. DiStasio Jr.,  A. Dreuw,  B. D. Dunietz,  
 T. R. Furlani,  Chao-Ping Hsu,  Yousung Jung,  Jing Kong,  D. S. Lambrecht,  
 WanZhen Liang,  C. Ochsenfeld,  V. A. Rassolov,  L. V. Slipchenko,  
 J. E. Subotnik,  T. Van Voorhis,  J. M. Herbert,  A. I. Krylov,  
 P. M. W. Gill,  M. Head-Gordon

 Contributors to earlier versions of Q-Chem not listed above: 
 R. D. Adamson,  B. Austin,  J. Baker,  G. J. O. Beran,  K. Brandhorst,  
 S. T. Brown,  E. F. C. Byrd,  A. K. Chakraborty,  C.-L. Cheng,  
 Siu Hung Chien,  D. M. Chipman,  D. L. Crittenden,  H. Dachsel,  
 R. J. Doerksen,  A. D. Dutoi,  L. Fusti-Molnar,  W. A. Goddard III,  
 A. Golubeva-Zadorozhnaya,  S. R. Gwaltney,  G. Hawkins,  A. Heyden,  
 S. Hirata,  G. Kedziora,  F. J. Keil,  C. Kelley,  Jihan Kim,  R. A. King,  
 R. Z. Khaliullin,  P. P. Korambath,  W. Kurlancheek,  A. M. Lee,  M. S. Lee,  
 S. V. Levchenko,  Ching Yeh Lin,  D. Liotard,  R. C. Lochan,  I. Lotan,  
 P. E. Maslen,  N. Nair,  D. P. O'Neill,  D. Neuhauser,  E. Neuscamman,  
 C. M. Oana,  R. Olson,  B. Peters,  R. Peverati,  P. A. Pieniazek,  
 Y. M. Rhee,  J. Ritchie,  M. A. Rohrdanz,  E. Rosta,  N. J. Russ,  
 H. F. Schaefer III,  N. E. Schultz,  N. Shenvi,  A. C. Simmonett,  A. Sodt,  
 D. Stuck,  K. S. Thanthiriwatte,  V. Vanovschi,  Tao Wang,  A. Warshel,  
 C. F. Williams,  Q. Wu,  X. Xu,  W. Zhang

 Please cite Q-Chem as follows:
 Y. Shao et al., Mol. Phys. 113, 184-215 (2015)
 DOI: 10.1080/00268976.2014.952696

 Q-Chem 5.2.0 for Intel X86 EM64T Linux

 Parts of Q-Chem use Armadillo 8.300.2 (Tropical Shenanigans).
 http://arma.sourceforge.net/

 Q-Chem begins on Tue Feb 15 14:51:14 2022  

Host: cori08
0

     Scratch files written to /tmp/qchem2627//
 May1019 |scratch|qcdevops|jenkins|workspace|build_RNUM -1
Processing $rem in /global/common/cori/software/qchem/5.2/config/preferences:
	 MEM_TOTAL  96000 
NAlpha2: 16
NElect   16
Mult     1
Core orbitals will be frozen

Checking the input file for inconsistencies... 	...done.

--------------------------------------------------------------
User input:
--------------------------------------------------------------
$molecule
0 1
C	0.04407691	0.26556017	-0.53283778
O	-0.09021251	-0.15458396	0.61150002
H	-0.74027901	0.89213691	-1.03658371
H	0.84304493	0.08303257	-1.15034609
$end

$rem
jobtype                force
exchange               HF
correlation            mp2
basis                  aug-cc-pVTZ
SCF_CONVERGENCE 11
symmetry false
sym_ignore true
$end
--------------------------------------------------------------
 ----------------------------------------------------------------
             Standard Nuclear Orientation (Angstroms)
    I     Atom           X                Y                Z
 ----------------------------------------------------------------
    1      C       0.0440769100     0.2655601700    -0.5328377800
    2      O      -0.0902125100    -0.1545839600     0.6115000200
    3      H      -0.7402790100     0.8921369100    -1.0365837100
    4      H       0.8430449300     0.0830325700    -1.1503460900
 ----------------------------------------------------------------
 Nuclear Repulsion Energy =          31.09506036 hartrees
 There are        8 alpha and        8 beta electrons
 Requested basis set is aug-cc-pVTZ
 There are 46 shells and 138 basis functions

 Total QAlloc Memory Limit  96000 MB
 Mega-Array Size       188 MB
 MEM_STATIC part       192 MB

                       Distance Matrix (Angstroms)
             C (  1)   O (  2)   H (  3)
   O (  2)  1.226403
   H (  3)  1.123197  2.057764
   H (  4)  1.026149  2.007868  1.781714
 
 A cutoff of  1.0D-14 yielded   1081 shell pairs
 There are      9817 function pairs (     13252 Cartesian)
 Smallest overlap matrix eigenvalue = 6.86E-05

 Scale SEOQF with 1.000000e-01/1.000000e-01/1.000000e-01

 Standard Electronic Orientation quadrupole field applied
 Nucleus-field energy     =    -0.0000000006 hartrees
 Guess from superposition of atomic densities
 Warning:  Energy on first SCF cycle will be non-variational
 SAD guess density has 16.000000 electrons

 -----------------------------------------------------------------------
  General SCF calculation program by
  Eric Jon Sundstrom, Paul Horn, Yuezhi Mao, Dmitri Zuev, Alec White,
  David Stuck, Shaama M.S., Shane Yost, Joonho Lee, David Small,
  Daniel Levine, Susi Lehtola, Hugh Burton, Evgeny Epifanovsky
 -----------------------------------------------------------------------
 Hartree-Fock
 using 32 threads for integral computing
 -------------------------------------------------------
 OpenMP Integral computing Module                
 Release: version 1.0, May 2013, Q-Chem Inc. Pittsburgh 
 -------------------------------------------------------
 A restricted SCF calculation will be
 performed using DIIS
 SCF converges when DIIS error is below 1.0e-11
 ---------------------------------------
  Cycle       Energy         DIIS error
 ---------------------------------------
    1    -114.0788351494      3.38e-02  
    2    -113.8341976689      5.66e-03  
    3    -113.8664322736      4.94e-03  
    4    -113.9058786628      4.28e-04  
    5    -113.9066448719      1.63e-04  
    6    -113.9067851347      7.01e-05  
    7    -113.9068272577      2.90e-05  
    8    -113.9068318652      4.32e-06  
    9    -113.9068319641      5.75e-07  
   10    -113.9068319662      1.11e-07  
   11    -113.9068319663      2.12e-08  
   12    -113.9068319663      4.30e-09  
   13    -113.9068319663      1.78e-09  
   14    -113.9068319663      8.97e-10  
   15    -113.9068319663      3.43e-10  
   16    -113.9068319663      7.17e-11  
   17    -113.9068319663      2.69e-11  
   18    -113.9068319663      6.77e-12  Convergence criterion met
 ---------------------------------------
 SCF time:   CPU 149.14s  wall 5.00s 
 SCF   energy in the final basis set =     -113.9068319663
 Total energy in the final basis set =     -113.9068319663
 
 Components of the MP2 correlation energy:
        aaaa  correlation energy =        -0.0483015215 au
        abab  correlation energy =        -0.3078689232 au
        bbbb  correlation energy =        -0.0483015215 au
        non-Brillouin singles    =        -0.0000000000 au

 Total  MP2   correlation energy =                    -0.40447197 au
        MP2         total energy =                  -114.31130393 au
  Entering Z-vector solver.
   1         0           1      0.000422    0.000422
   2         0           1      0.000137    0.000137
   3         0           1      0.000044    0.000044
   4         0           1      0.000012    0.000012
   5         0           1      0.000004    0.000004
   6         0           1      0.000001    0.000001
   7         1           0      0.000000    0.000000    Roots Converged
 
 --------------------------------------------------------------
 
                    Orbital Energies (a.u.)
 --------------------------------------------------------------
 
 Alpha MOs
 -- Occupied --
-20.5815 -11.3419  -1.3937  -0.8913  -0.6925  -0.6511  -0.5292  -0.4479
 -- Virtual --
  0.0255   0.0418   0.0606   0.0765   0.1242   0.1314   0.1329   0.1759
  0.1987   0.2115   0.2217   0.2553   0.2558   0.2799   0.3168   0.3295
  0.3414   0.3579   0.3873   0.3914   0.3976   0.4215   0.4909   0.4969
  0.5692   0.5768   0.6649   0.6884   0.7108   0.7698   0.8110   0.8303
  0.8401   0.8538   0.8728   0.8889   0.9321   0.9334   0.9416   0.9598
  0.9889   1.0195   1.0275   1.0339   1.0720   1.0861   1.1059   1.1315
  1.2667   1.2777   1.2880   1.3724   1.3866   1.4623   1.4859   1.5042
  1.5841   1.5858   1.6506   1.7150   1.7187   1.8297   1.9411   1.9991
  2.0880   2.1378   2.2125   2.2800   2.3324   2.3426   2.3495   2.4951
  2.4991   2.5663   2.5912   2.7153   2.7658   2.7753   2.8784   2.9304
  3.0829   3.0866   3.1489   3.1920   3.4141   3.4224   3.5291   3.5811
  3.6553   3.6601   3.6800   3.9089   3.9721   4.0587   4.1190   4.1269
  4.1551   4.2419   4.2870   4.4144   4.5943   4.6397   4.7347   4.7742
  4.9978   5.0376   5.1302   5.1433   5.3729   5.3902   5.4476   5.4947
  6.0183   6.1465   6.2129   6.5541   6.5964   6.6264   6.9138   6.9405
  7.0755   7.1836   7.2081   7.3925   7.5246   7.7121   7.7462   7.7541
 14.5931  17.0666
 --------------------------------------------------------------
 
          Ground-State Mulliken Net Atomic Charges

     Atom                 Charge (a.u.)
  ----------------------------------------
      1 C                    -0.538432
      2 O                    -0.406703
      3 H                     0.413238
      4 H                     0.531897
  ----------------------------------------
  Sum of atomic charges =     0.000000

 -----------------------------------------------------------------
                    Cartesian Multipole Moments
 -----------------------------------------------------------------
    Charge (ESU x 10^10)
                 0.0000
    Dipole Moment (Debye)
         X       0.3364      Y       0.8033      Z      -2.3221
       Tot       2.4801
    Quadrupole Moments (Debye-Ang)
        XX     -11.8578     XY       0.0781     YY     -11.7689
        XZ      -0.0494     YZ      -0.0479     ZZ     -11.9089
    Octopole Moments (Debye-Ang^2)
       XXX       1.0970    XXY      -0.9481    XYY       0.0258
       YYY      -3.4412    XXZ      -0.0228    XYZ       0.3379
       YYZ       0.5608    XZZ       0.6993    YZZ      -0.8655
       ZZZ       1.2602
    Hexadecapole Moments (Debye-Ang^3)
      XXXX     -17.1629   XXXY       0.9380   XXYY      -5.6475
      XYYY       1.2069   YYYY     -17.8964   XXXZ       1.3452
      XXYZ       1.8714   XYYZ       0.6153   YYYZ       6.0854
      XXZZ      -9.7737   XYZZ       0.3816   YYZZ     -10.0173
      XZZZ       1.1729   YZZZ       6.1483   ZZZZ     -42.3892
 -----------------------------------------------------------------
 DrvMan is completing analytic gradient of the MP2 energy
 MP2 relaxed dipole moment
            1
    1   0.1323617
    2   0.3160574
    3  -0.9135895
	Magnitude:	 0.976 au	 2.480 Debye
 MP2 energy read as -114.311304
 Full Analytical Gradient of MP2 Energy (in au.)
             1             2             3             4
    1    0.06024248   -0.00633263   -0.00460812   -0.04930173
    2   -0.01508365   -0.00629733    0.00578337    0.01559761
    3   -0.03405241    0.02015250   -0.01081360    0.02471351
 Gradient time:  CPU 1.03 s  wall 0.22 s
Archival summary:
1\1\nid00172\JobtypUnspecified\MP2\BasisUnspecified\112\mzhou035\TueFeb1514:51:352022TueFeb1514:51:352022\0\\#,JobtypUnspecified,MP2,BasisUnspecified,\\0,1\C\H,1,1.02615\H,1,1.1232,2,111.904\O,1,1.2264,2,125.861,3,178.498,0\\HF=-113.906832\MP2=-114.311304\\@

 Total job time:  21.11s(wall), 383.13s(cpu) 
 Tue Feb 15 14:51:35 2022

        *************************************************************
        *                                                           *
        *  Thank you very much for using Q-Chem.  Have a nice day.  *
        *                                                           *
        *************************************************************


remove work dirs /tmp/qchem2627.0 -- /tmp/qchem2627.-1
rm -rf /tmp/qchem2627
